[{"pid":"00","numBytes":4,"description":"PIDs supported [01 - 20]","min":null,"max":null,"unit":null,"formula":"Bit encoded [A7..D0] == [PID 0x01..PID 0x20] See below."},{"pid":"01","numBytes":4,"description":"Monitor status since DTCs cleared. (Includes malfunction indicator lamp (MIL) status and number of DTCs.)","min":null,"max":null,"unit":null,"formula":"Bit encoded. See below."},{"pid":"02","numBytes":2,"description":"Freeze DTC","min":null,"max":null,"unit":null,"formula":null},{"pid":"03","numBytes":2,"description":"Fuel system status","min":null,"max":null,"unit":null,"formula":"Bit encoded. See below."},{"pid":"04","numBytes":1,"description":"Calculated engine load value","min":0,"max":100,"unit":"%","formula":"A*100/255"},{"pid":"05","numBytes":1,"description":"Engine coolant temperature","min":"-40","max":215,"unit":"°C","formula":"A-40"},{"pid":"06","numBytes":1,"description":"Short term fuel % trim—Bank 1","min":"-100","max":"99.22","unit":"%","formula":"(A-128) * 100/128"},{"pid":"07","numBytes":1,"description":"Long term fuel % trim—Bank 1","min":"-100","max":"99.22","unit":"%","formula":"(A-128) * 100/128"},{"pid":"08","numBytes":1,"description":"Short term fuel % trim—Bank 2","min":"-100","max":"99.22","unit":"%","formula":"(A-128) * 100/128"},{"pid":"09","numBytes":1,"description":"Long term fuel % trim—Bank 2","min":"-100","max":"99.22","unit":"%","formula":"(A-128) * 100/128"},{"pid":"0A","numBytes":1,"description":"Fuel pressure","min":0,"max":765,"unit":"kPa (gauge)","formula":"A*3"},{"pid":"0B","numBytes":1,"description":"Intake manifold absolute pressure","min":0,"max":255,"unit":"kPa (absolute)","formula":"A"},{"pid":"0C","numBytes":2,"description":"Engine RPM","min":0,"max":"16383.75","unit":"rpm","formula":"((A*256)+B)/4"},{"pid":"0D","numBytes":1,"description":"Vehicle speed","min":0,"max":255,"unit":"km/h","formula":"A"},{"pid":"0E","numBytes":1,"description":"Timing advance","min":"-64","max":"63.5","unit":"° relative to #1 cylinder","formula":"A/2 - 64"},{"pid":"0F","numBytes":1,"description":"Intake air temperature","min":"-40","max":215,"unit":"°C","formula":"A-40"},{"pid":"10","numBytes":2,"description":"MAF air flow rate","min":0,"max":"655.35","unit":"grams/sec","formula":"((A*256)+B) / 100"},{"pid":"11","numBytes":1,"description":"Throttle position","min":0,"max":100,"unit":"%","formula":"A*100/255"},{"pid":"12","numBytes":1,"description":"Commanded secondary air status","min":null,"max":null,"unit":null,"formula":"Bit encoded. See below."},{"pid":"13","numBytes":1,"description":"Oxygen sensors present","min":null,"max":null,"unit":null,"formula":"[A0..A3] == Bank 1, Sensors 1-4. [A4..A7] == Bank 2..."},{"pid":"14","numBytes":2,"description":"Bank 1, Sensor 1:Oxygen sensor voltage, Short term fuel trim","min":0,"max":"1.275","unit":"Volts","formula":"A/200"},{"pid":"14","numBytes":2,"description":"Bank 1, Sensor 1:Oxygen sensor voltage, Short term fuel trim","min":100,"max":"99.2","unit":"%","formula":"(B-128) * 100/128 (if B==0xFF, sensor is not used in trim calc)"},{"pid":"15","numBytes":2,"description":"Bank 1, Sensor 2:Oxygen sensor voltage, Short term fuel trim","min":0,"max":"1.275","unit":"Volts","formula":"A/200"},{"pid":"15","numBytes":2,"description":"Bank 1, Sensor 2:Oxygen sensor voltage, Short term fuel trim","min":100,"max":"99.2","unit":"%","formula":"(B-128) * 100/128 (if B==0xFF, sensor is not used in trim calc)"},{"pid":"16","numBytes":2,"description":"Bank 1, Sensor 3:Oxygen sensor voltage, Short term fuel trim","min":0,"max":"1.275","unit":"Volts","formula":"A/200"},{"pid":"16","numBytes":2,"description":"Bank 1, Sensor 3:Oxygen sensor voltage, Short term fuel trim","min":100,"max":"99.2","unit":"%","formula":"(B-128) * 100/128 (if B==0xFF, sensor is not used in trim calc)"},{"pid":"17","numBytes":2,"description":"Bank 1, Sensor 4:Oxygen sensor voltage, Short term fuel trim","min":0,"max":"1.275","unit":"Volts","formula":"A/200"},{"pid":"17","numBytes":2,"description":"Bank 1, Sensor 4:Oxygen sensor voltage, Short term fuel trim","min":100,"max":"99.2","unit":"%","formula":"(B-128) * 100/128 (if B==0xFF, sensor is not used in trim calc)"},{"pid":"18","numBytes":2,"description":"Bank 2, Sensor 1:Oxygen sensor voltage, Short term fuel trim","min":0,"max":"1.275","unit":"Volts","formula":"A/200"},{"pid":"18","numBytes":2,"description":"Bank 2, Sensor 1:Oxygen sensor voltage, Short term fuel trim","min":100,"max":"99.2","unit":"%","formula":"(B-128) * 100/128 (if B==0xFF, sensor is not used in trim calc)"},{"pid":"19","numBytes":2,"description":"Bank 2, Sensor 2:Oxygen sensor voltage, Short term fuel trim","min":0,"max":"1.275","unit":"Volts","formula":"A/200"},{"pid":"19","numBytes":2,"description":"Bank 2, Sensor 2:Oxygen sensor voltage, Short term fuel trim","min":100,"max":"99.2","unit":"%","formula":"(B-128) * 100/128 (if B==0xFF, sensor is not used in trim calc)"},{"pid":"1A","numBytes":2,"description":"Bank 2, Sensor 3:Oxygen sensor voltage, Short term fuel trim","min":0,"max":"1.275","unit":"Volts","formula":"A/200"},{"pid":"1A","numBytes":2,"description":"Bank 2, Sensor 3:Oxygen sensor voltage, Short term fuel trim","min":100,"max":"99.2","unit":"%","formula":"(B-128) * 100/128 (if B==0xFF, sensor is not used in trim calc)"},{"pid":"1B","numBytes":2,"description":"Bank 2, Sensor 4:Oxygen sensor voltage, Short term fuel trim","min":0,"max":"1.275","unit":"Volts","formula":"A/200"},{"pid":"1B","numBytes":2,"description":"Bank 2, Sensor 4:Oxygen sensor voltage, Short term fuel trim","min":100,"max":"99.2","unit":"%","formula":"(B-128) * 100/128 (if B==0xFF, sensor is not used in trim calc)"},{"pid":"1C","numBytes":1,"description":"OBD standards this vehicle conforms to","min":null,"max":null,"unit":null,"formula":"Bit encoded. See below."},{"pid":"1D","numBytes":1,"description":"Oxygen sensors present","min":null,"max":null,"unit":null,"formula":"Similar to PID 13, but [A0..A7] == [B1S1, B1S2, B2S1, B2S2, B3S1, B3S2, B4S1, B4S2]"},{"pid":"1E","numBytes":1,"description":"Auxiliary input status","min":null,"max":null,"unit":null,"formula":"A0 == Power Take Off (PTO) status (1 == active)[A1..A7] not used"},{"pid":"1F","numBytes":2,"description":"Run time since engine start","min":0,"max":65535,"unit":"seconds","formula":"(A*256)+B"},{"pid":"20","numBytes":4,"description":"PIDs supported [21 - 40]","min":null,"max":null,"unit":null,"formula":"Bit encoded [A7..D0] == [PID 0x21..PID 0x40] See below."},{"pid":"21","numBytes":2,"description":"Distance traveled with malfunction indicator lamp (MIL) on","min":0,"max":65535,"unit":"km","formula":"(A*256)+B"},{"pid":"22","numBytes":2,"description":"Fuel Rail Pressure (relative to manifold vacuum)","min":0,"max":"5177.265","unit":"kPa","formula":"((A*256)+B) * 0.079"},{"pid":"23","numBytes":2,"description":"Fuel Rail Pressure (diesel, or gasoline direct inject)","min":0,"max":655350,"unit":"kPa (gauge)","formula":"((A*256)+B) * 10"},{"pid":"24","numBytes":4,"description":"O2S1_WR_lambda(1):Equivalence Ratio","min":0,"max":"1.999","unit":"N/A","formula":"((A*256)+B)*2/65535 or ((A*256)+B)/32768"},{"pid":"24","numBytes":4,"description":"O2S1_WR_lambda(1):Voltage","min":0,"max":"7.999","unit":"V","formula":"((C*256)+D)*8/65535 or ((C*256)+D)/8192"},{"pid":"25","numBytes":4,"description":"O2S2_WR_lambda(1):Equivalence Ratio","min":0,"max":2,"unit":"N/A","formula":"((A*256)+B)*2/65535"},{"pid":"25","numBytes":4,"description":"O2S2_WR_lambda(1):Voltage","min":0,"max":8,"unit":"V","formula":"((C*256)+D)*8/65535"},{"pid":"26","numBytes":4,"description":"O2S3_WR_lambda(1):Equivalence Ratio","min":0,"max":2,"unit":"N/A","formula":"((A*256)+B)*2/65535"},{"pid":"26","numBytes":4,"description":"O2S3_WR_lambda(1):Voltage","min":0,"max":8,"unit":"V","formula":"((C*256)+D)*8/65535"},{"pid":"27","numBytes":4,"description":"O2S4_WR_lambda(1):Equivalence Ratio","min":0,"max":2,"unit":"N/A","formula":"((A*256)+B)*2/65535"},{"pid":"27","numBytes":4,"description":"O2S4_WR_lambda(1):Voltage","min":0,"max":8,"unit":"V","formula":"((C*256)+D)*8/65535"},{"pid":"28","numBytes":4,"description":"O2S5_WR_lambda(1):Equivalence Ratio","min":0,"max":2,"unit":"N/A","formula":"((A*256)+B)*2/65535"},{"pid":"28","numBytes":4,"description":"O2S5_WR_lambda(1):Voltage","min":0,"max":8,"unit":"V","formula":"((C*256)+D)*8/65535"},{"pid":"29","numBytes":4,"description":"O2S6_WR_lambda(1):Equivalence Ratio","min":0,"max":2,"unit":"N/A","formula":"((A*256)+B)*2/65535"},{"pid":"29","numBytes":4,"description":"O2S6_WR_lambda(1):Voltage","min":0,"max":8,"unit":"V","formula":"((C*256)+D)*8/65535"},{"pid":"2A","numBytes":4,"description":"O2S7_WR_lambda(1):Equivalence Ratio","min":0,"max":2,"unit":"N/A","formula":"((A*256)+B)*2/65535"},{"pid":"2A","numBytes":4,"description":"O2S7_WR_lambda(1):Voltage","min":0,"max":8,"unit":"V","formula":"((C*256)+D)*8/65535"},{"pid":"2B","numBytes":4,"description":"O2S8_WR_lambda(1):Equivalence Ratio","min":0,"max":2,"unit":"N/A","formula":"((A*256)+B)*2/65535"},{"pid":"2B","numBytes":4,"description":"O2S8_WR_lambda(1):Voltage","min":0,"max":8,"unit":"V","formula":"((C*256)+D)*8/65535"},{"pid":"2C","numBytes":1,"description":"Commanded EGR","min":0,"max":100,"unit":"%","formula":"100*A/255"},{"pid":"2D","numBytes":1,"description":"EGR Error","min":"-100","max":"99.22","unit":"%","formula":"(A-128) * 100/128"},{"pid":"2E","numBytes":1,"description":"Commanded evaporative purge","min":0,"max":100,"unit":"%","formula":"100*A/255"},{"pid":"2F","numBytes":1,"description":"Fuel Level Input","min":0,"max":100,"unit":"%","formula":"100*A/255"},{"pid":"30","numBytes":1,"description":"# of warm-ups since codes cleared","min":0,"max":255,"unit":"N/A","formula":"A"},{"pid":"31","numBytes":2,"description":"Distance traveled since codes cleared","min":0,"max":65535,"unit":"km","formula":"(A*256)+B"},{"pid":"32","numBytes":2,"description":"Evap. System Vapor Pressure","min":"-8192","max":8192,"unit":"Pa","formula":"((A*256)+B)/4 (A is signed)"},{"pid":"33","numBytes":1,"description":"Barometric pressure","min":0,"max":255,"unit":"kPa (Absolute)","formula":"A"},{"pid":"34","numBytes":4,"description":"O2S1_WR_lambda(1):Equivalence Ratio","min":0,"max":"1.999","unit":"N/A","formula":"((A*256)+B)/32768"},{"pid":"34","numBytes":4,"description":"O2S1_WR_lambda(1):Current","min":"-128","max":"127.99","unit":"mA","formula":"((C*256)+D)/256 - 128"},{"pid":"35","numBytes":4,"description":"O2S2_WR_lambda(1):Equivalence Ratio","min":0,"max":2,"unit":"N/A","formula":"((A*256)+B)/32768"},{"pid":"35","numBytes":4,"description":"O2S2_WR_lambda(1):Current","min":"-128","max":128,"unit":"mA","formula":"((C*256)+D)/256 - 128"},{"pid":"36","numBytes":4,"description":"O2S3_WR_lambda(1):Equivalence Ratio","min":0,"max":2,"unit":"N/A","formula":"((A*256)+B)/32768"},{"pid":"36","numBytes":4,"description":"O2S3_WR_lambda(1):Current","min":"-128","max":128,"unit":"mA","formula":"((C*256)+D)/256 - 128"},{"pid":"37","numBytes":4,"description":"O2S4_WR_lambda(1):Equivalence Ratio","min":0,"max":2,"unit":"N/A","formula":"((A*256)+B)/32768"},{"pid":"37","numBytes":4,"description":"O2S4_WR_lambda(1):Current","min":"-128","max":128,"unit":"mA","formula":"((C*256)+D)/256 - 128"},{"pid":"38","numBytes":4,"description":"O2S5_WR_lambda(1):Equivalence Ratio","min":0,"max":2,"unit":"N/A","formula":"((A*256)+B)/32768"},{"pid":"38","numBytes":4,"description":"O2S5_WR_lambda(1):Current","min":"-128","max":128,"unit":"mA","formula":"((C*256)+D)/256 - 128"},{"pid":"39","numBytes":4,"description":"O2S6_WR_lambda(1):Equivalence Ratio","min":0,"max":2,"unit":"N/A","formula":"((A*256)+B)/32768"},{"pid":"39","numBytes":4,"description":"O2S6_WR_lambda(1):Current","min":"-128","max":128,"unit":"mA","formula":"((C*256)+D)/256 - 128"},{"pid":"3A","numBytes":4,"description":"O2S7_WR_lambda(1):Equivalence Ratio","min":0,"max":2,"unit":"N/A","formula":"((A*256)+B)/32768"},{"pid":"3A","numBytes":4,"description":"O2S7_WR_lambda(1):Current","min":"-128","max":128,"unit":"mA","formula":"((C*256)+D)/256 - 128"},{"pid":"3B","numBytes":4,"description":"O2S8_WR_lambda(1):Equivalence Ratio","min":0,"max":2,"unit":"N/A","formula":"((A*256)+B)/32768"},{"pid":"3B","numBytes":4,"description":"O2S8_WR_lambda(1):Current","min":"-128","max":128,"unit":"mA","formula":"((C*256)+D)/256 - 128"},{"pid":"3C","numBytes":2,"description":"Catalyst Temperature Bank 1, Sensor 1","min":"-40","max":"6513.5","unit":"°C","formula":"((A*256)+B)/10 - 40"},{"pid":"3D","numBytes":2,"description":"Catalyst Temperature Bank 2, Sensor 1","min":"-40","max":"6513.5","unit":"°C","formula":"((A*256)+B)/10 - 40"},{"pid":"3E","numBytes":2,"description":"Catalyst Temperature Bank 1, Sensor 2","min":"-40","max":"6513.5","unit":"°C","formula":"((A*256)+B)/10 - 40"},{"pid":"3F","numBytes":2,"description":"Catalyst Temperature Bank 2, Sensor 2","min":"-40","max":"6513.5","unit":"°C","formula":"((A*256)+B)/10 - 40"},{"pid":"40","numBytes":4,"description":"PIDs supported [41 - 60]","min":null,"max":null,"unit":null,"formula":"Bit encoded [A7..D0] == [PID 0x41..PID 0x60] See below."},{"pid":"41","numBytes":4,"description":"Monitor status this drive cycle","min":null,"max":null,"unit":null,"formula":"Bit encoded. See below."},{"pid":"42","numBytes":2,"description":"Control module voltage","min":0,"max":"65.535","unit":"V","formula":"((A*256)+B)/1000"},{"pid":"43","numBytes":2,"description":"Absolute load value","min":0,"max":25700,"unit":"%","formula":"((A*256)+B)*100/255"},{"pid":"44","numBytes":2,"description":"Command equivalence ratio","min":0,"max":2,"unit":"N/A","formula":"((A*256)+B)/32768"},{"pid":"45","numBytes":1,"description":"Relative throttle position","min":0,"max":100,"unit":"%","formula":"A*100/255"},{"pid":"46","numBytes":1,"description":"Ambient air temperature","min":"-40","max":215,"unit":"°C","formula":"A-40"},{"pid":"47","numBytes":1,"description":"Absolute throttle position B","min":0,"max":100,"unit":"%","formula":"A*100/255"},{"pid":"48","numBytes":1,"description":"Absolute throttle position C","min":0,"max":100,"unit":"%","formula":"A*100/255"},{"pid":"49","numBytes":1,"description":"Accelerator pedal position D","min":0,"max":100,"unit":"%","formula":"A*100/255"},{"pid":"4A","numBytes":1,"description":"Accelerator pedal position E","min":0,"max":100,"unit":"%","formula":"A*100/255"},{"pid":"4B","numBytes":1,"description":"Accelerator pedal position F","min":0,"max":100,"unit":"%","formula":"A*100/255"},{"pid":"4C","numBytes":1,"description":"Commanded throttle actuator","min":0,"max":100,"unit":"%","formula":"A*100/255"},{"pid":"4D","numBytes":2,"description":"Time run with MIL on","min":0,"max":65535,"unit":"minutes","formula":"(A*256)+B"},{"pid":"4E","numBytes":2,"description":"Time since trouble codes cleared","min":0,"max":65535,"unit":"minutes","formula":"(A*256)+B"},{"pid":"4F","numBytes":4,"description":"Maximum value for equivalence ratio","min":0,"max":255,"unit":"N/A","formula":"A"},{"pid":"4F","numBytes":4,"description":"Maximum value for oxygen sensor voltage","min":0,"max":255,"unit":"V","formula":"B"},{"pid":"4F","numBytes":4,"description":"Maximum value for oxygen sensor current","min":0,"max":255,"unit":"mA","formula":"C"},{"pid":"4F","numBytes":4,"description":"Maximum value for intake manifold absolute pressure","min":0,"max":2550,"unit":"kPa","formula":"D*10"},{"pid":"50","numBytes":4,"description":"Maximum value for air flow rate from mass air flow sensor","min":0,"max":2550,"unit":"g/s","formula":"A*10, B, C, and D are reserved for future use"},{"pid":"51","numBytes":1,"description":"Fuel Type","min":null,"max":null,"unit":null,"formula":"From fuel type table see below"},{"pid":"52","numBytes":1,"description":"Ethanol fuel %","min":0,"max":100,"unit":"%","formula":"A*100/255"},{"pid":"53","numBytes":2,"description":"Absoulute Evap system Vapour Pressure","min":0,"max":327675,"unit":"kPa","formula":"1/200 per bit"},{"pid":"54","numBytes":2,"description":"Evap system vapor pressure","min":"-32767","max":32768,"unit":"Pa","formula":"A*256+B - 32768"},{"pid":"55","numBytes":2,"description":"Short term secondary oxygen sensor trim bank 1 and bank 3","min":"-100","max":"99.22","unit":"%","formula":"(A-128)*100/128|(B-128)*100/128"},{"pid":"56","numBytes":2,"description":"Long term secondary oxygen sensor trim bank 1 and bank 3","min":"-100","max":"99.22","unit":"%","formula":"(A-128)*100/128|(B-128)*100/128"},{"pid":"57","numBytes":2,"description":"Short term secondary oxygen sensor trim bank 2 and bank 4","min":"-100","max":"99.22","unit":"%","formula":"(A-128)*100/128|(B-128)*100/128"},{"pid":"58","numBytes":2,"description":"Long term secondary oxygen sensor trim bank 2 and bank 4","min":"-100","max":"99.22","unit":"%","formula":"(A-128)*100/128|(B-128)*100/128"},{"pid":"59","numBytes":2,"description":"Fuel rail pressure (absolute)","min":0,"max":655350,"unit":"kPa","formula":"((A*256)+B) * 10"},{"pid":"5A","numBytes":1,"description":"Relative accelerator pedal position","min":0,"max":100,"unit":"%","formula":"A*100/255"},{"pid":"5B","numBytes":1,"description":"Hybrid battery pack remaining life","min":0,"max":100,"unit":"%","formula":"A*100/255"},{"pid":"5C","numBytes":1,"description":"Engine oil temperature","min":"-40","max":210,"unit":"°C","formula":"A - 40"},{"pid":"5D","numBytes":2,"description":"Fuel injection timing","min":"-210.00","max":"301.992","unit":"°","formula":"(((A*256)+B)-26,880)/128"},{"pid":"5E","numBytes":2,"description":"Engine fuel rate","min":0,"max":"3212.75","unit":"L/h","formula":"((A*256)+B)*0.05"},{"pid":"5F","numBytes":1,"description":"Emission requirements to which vehicle is designed","min":null,"max":null,"unit":null,"formula":"Bit Encoded"},{"pid":"60","numBytes":4,"description":"PIDs supported [61 - 80]","min":null,"max":null,"unit":null,"formula":"Bit encoded [A7..D0] == [PID 0x61..PID 0x80] See below."},{"pid":"61","numBytes":1,"description":"Driver's demand engine - percent torque","min":"-125","max":125,"unit":"%","formula":"A-125"},{"pid":"62","numBytes":1,"description":"Actual engine - percent torque","min":"-125","max":125,"unit":"%","formula":"A-125"},{"pid":"63","numBytes":2,"description":"Engine reference torque","min":0,"max":65535,"unit":"Nm","formula":"A*256+B"},{"pid":"64","numBytes":5,"description":"Engine percent torque data","min":"-125","max":125,"unit":"%","formula":"A-125 Idle|B-125 Engine point 1|C-125 Engine point 2|D-125 Engine point 3|E-125 Engine point 4"},{"pid":"65","numBytes":2,"description":"Auxiliary input / output supported","min":null,"max":null,"unit":null,"formula":"Bit Encoded"},{"pid":"66","numBytes":5,"description":"Mass air flow sensor","min":null,"max":null,"unit":null,"formula":null},{"pid":"67","numBytes":3,"description":"Engine coolant temperature","min":null,"max":null,"unit":null,"formula":null},{"pid":"68","numBytes":7,"description":"Intake air temperature sensor","min":null,"max":null,"unit":null,"formula":null},{"pid":"69","numBytes":7,"description":"Commanded EGR and EGR Error","min":null,"max":null,"unit":null,"formula":null},{"pid":"6A","numBytes":5,"description":"Commanded Diesel intake air flow control and relative intake air flow position","min":null,"max":null,"unit":null,"formula":null},{"pid":"6B","numBytes":5,"description":"Exhaust gas recirculation temperature","min":null,"max":null,"unit":null,"formula":null},{"pid":"6C","numBytes":5,"description":"Commanded throttle actuator control and relative throttle position","min":null,"max":null,"unit":null,"formula":null},{"pid":"6D","numBytes":6,"description":"Fuel pressure control system","min":null,"max":null,"unit":null,"formula":null},{"pid":"6E","numBytes":5,"description":"Injection pressure control system","min":null,"max":null,"unit":null,"formula":null},{"pid":"6F","numBytes":3,"description":"Turbocharger compressor inlet pressure","min":null,"max":null,"unit":null,"formula":null},{"pid":"70","numBytes":9,"description":"Boost pressure control","min":null,"max":null,"unit":null,"formula":null},{"pid":"71","numBytes":5,"description":"Variable Geometry turbo (VGT) control","min":null,"max":null,"unit":null,"formula":null},{"pid":"72","numBytes":5,"description":"Wastegate control","min":null,"max":null,"unit":null,"formula":null},{"pid":"73","numBytes":5,"description":"Exhaust pressure","min":null,"max":null,"unit":null,"formula":null},{"pid":"74","numBytes":5,"description":"Turbocharger RPM","min":null,"max":null,"unit":null,"formula":null},{"pid":"75","numBytes":7,"description":"Turbocharger temperature","min":null,"max":null,"unit":null,"formula":null},{"pid":"76","numBytes":7,"description":"Turbocharger temperature","min":null,"max":null,"unit":null,"formula":null},{"pid":"77","numBytes":5,"description":"Charge air cooler temperature (CACT)","min":null,"max":null,"unit":null,"formula":null},{"pid":"78","numBytes":9,"description":"Exhaust Gas temperature (EGT) Bank 1","min":null,"max":null,"unit":null,"formula":"Special PID. See below."},{"pid":"79","numBytes":9,"description":"Exhaust Gas temperature (EGT) Bank 2","min":null,"max":null,"unit":null,"formula":"Special PID. See below."},{"pid":"7A","numBytes":7,"description":"Diesel particulate filter (DPF)","min":null,"max":null,"unit":null,"formula":null},{"pid":"7B","numBytes":7,"description":"Diesel particulate filter (DPF)","min":null,"max":null,"unit":null,"formula":null},{"pid":"7C","numBytes":9,"description":"Diesel Particulate filter (DPF) temperature","min":null,"max":null,"unit":null,"formula":null},{"pid":"7D","numBytes":1,"description":"NOx NTE control area status","min":null,"max":null,"unit":null,"formula":null},{"pid":"7E","numBytes":1,"description":"PM NTE control area status","min":null,"max":null,"unit":null,"formula":null},{"pid":"7F","numBytes":13,"description":"Engine run time","min":null,"max":null,"unit":null,"formula":null},{"pid":"80","numBytes":4,"description":"PIDs supported [81 - A0]","min":null,"max":null,"unit":null,"formula":"Bit encoded [A7..D0] == [PID 0x81..PID 0xA0] See below."},{"pid":"81","numBytes":21,"description":"Engine run time for AECD","min":null,"max":null,"unit":null,"formula":null},{"pid":"82","numBytes":21,"description":"Engine run time for AECD","min":null,"max":null,"unit":null,"formula":null},{"pid":"83","numBytes":5,"description":"NOx sensor","min":null,"max":null,"unit":null,"formula":null},{"pid":"84","numBytes":null,"description":"Manifold surface temperature","min":null,"max":null,"unit":null,"formula":null},{"pid":"85","numBytes":null,"description":"NOx reagent system","min":null,"max":null,"unit":null,"formula":null},{"pid":"86","numBytes":null,"description":"Particulate matter (PM) sensor","min":null,"max":null,"unit":null,"formula":null},{"pid":"87","numBytes":null,"description":"Intake manifold absolute pressure","min":null,"max":null,"unit":null,"formula":null},{"pid":"A0","numBytes":4,"description":"PIDs supported [A1 - C0]","min":null,"max":null,"unit":null,"formula":"Bit encoded [A7..D0] == [PID 0xA1..PID 0xC0] See below."},{"pid":"C0","numBytes":4,"description":"PIDs supported [C1 - E0]","min":null,"max":null,"unit":null,"formula":"Bit encoded [A7..D0] == [PID 0xC1..PID 0xE0] See below."}]